 Gaussian 16, Revision A.03,
 Gaussian 16:  ES64L-G16RevA.03 25-Dec-2016

 -----------------------
 # HF/6-31G(d) scf=tight
 -----------------------

 ---------------------------------
 test1 HF/6-31G(d) sp formaldehyde
 ---------------------------------
 Symbolic Z-matrix:
 Charge =  0 Multiplicity = 1

                         Standard orientation:
 ---------------------------------------------------------------------
 Center     Atomic      Atomic             Coordinates (Angstroms)
 Number     Number       Type             X           Y           Z
 ---------------------------------------------------------------------
      1          1           0        0.000000    0.000000    0.500000
      2          1           0        0.000000    0.000000   -0.500000
 ---------------------------------------------------------------------

 SCF Done:  E(RHF) =  -1.09480795913     A.U. after    4 cycles

 The electronic state is 1-SGG.
 Alpha  occ. eigenvalues --   -0.52754
 Alpha virt. eigenvalues --    0.16771   0.90428   1.16227

 Mulliken charges:
               1
     1  H   -0.000000
     2  H   -0.000000
 Sum of Mulliken charges =  -0.00000

 Dipole moment (field-independent basis, Debye):
    X=             -0.0000    Y=              0.0000    Z=             -0.0000  Tot=              0.0000
 Quadrupole moment (field-independent basis, Debye-Ang):
   XX=             -2.4085   YY=             -2.4085   ZZ=             -1.6936
   XY=              0.0000   XZ=             -0.0000   YZ=              0.0000

 Normal termination of Gaussian 16 at Wed Mar 31 19:19:02 2021.
